# ODT 1.0
# Table Start
# Title: mmArchive Data Table, Thu Oct 20 14:56:38 CEST 2022
# Columns: {Oxs_CGEvolve:evolver:Max mxHxm} {Oxs_CGEvolve:evolver:Total energy} {Oxs_CGEvolve:evolver:Delta E} {Oxs_CGEvolve:evolver:Bracket count} {Oxs_CGEvolve:evolver:Line min count} {Oxs_CGEvolve:evolver:Conjugate cycle count} {Oxs_CGEvolve:evolver:Cycle count} {Oxs_CGEvolve:evolver:Cycle sub count} {Oxs_CGEvolve:evolver:Energy calc count} Oxs_FixedZeeman:zeeman:Energy Oxs_MinDriver::Iteration {Oxs_MinDriver::Stage iteration} Oxs_MinDriver::Stage Oxs_MinDriver::mx    Oxs_MinDriver::my    Oxs_MinDriver::mz   
# Units:                 A/m                                 J                                J                                 {}                                   {}                                        {}                                      {}                                   {}                                      {}                                  J                          {}                           {}                         {}                 {}                   {}                   {}           
                  2.39953701696e-05                -1.2566370614400001e-21              -4.3080325709000003e-31               9                                    3                                         5                                       5                                    0                                       13                                -1.2566370614400001e-21         10                           10                         0                    0                   -2.3995370169599998e-11  1                  
# Table End
